Atomic Number: 97
Atomic Weight: 247
Melting Point: 1323 K (1050°C or 1922°F)
Boiling Point: Unknown
Density: 14 grams per cubic centimeter
Phase at Room Temperature: Solid
Element Classification: Metal
Period Number: 7    Group Number: none    Group Name: Actinide
Radioactive and Artificially Produced