Atomic Number: 80
Atomic Weight: 200.592
Melting Point: 234.32 K (-38.83°C or -37.89°F)
Boiling Point: 629.88 K (356.73°C or 674.11°F)
Density: 13.5336 grams per cubic centimeter
Phase at Room Temperature: Liquid
Element Classification: Metal
Period Number: 6    Group Number: 12    Group Name: none