Atomic Number: 103
Atomic Weight: 262
Melting Point: 1900 K (1627°C or 2961°F)
Boiling Point: Unknown
Density: Unknown
Phase at Room Temperature: Solid
Element Classification: Metal
Period Number: 7    Group Number: 3    Group Name: Actinide
Radioactive and Artificially Produced