Atomic Number: 60
Atomic Weight: 144.242
Melting Point: 1294 K (1021°C or 1870°F)
Boiling Point: 3347 K (3074°C or 5565°F)
Density: 7.01 grams per cubic centimeter
Phase at Room Temperature: Solid
Element Classification: Metal
Period Number: 6    Group Number: none    Group Name: Lanthanide