Atomic Number: 28
Atomic Weight: 58.6934
Melting Point: 1728 K (1455°C or 2651°F)
Boiling Point: 3186 K (2913°C or 5275°F)
Density: 8.912 grams per cubic centimeter
Phase at Room Temperature: Solid
Element Classification: Metal
Period Number: 4    Group Number: 10    Group Name: none