Atomic Number: 102
Atomic Weight: 259
Melting Point: 1100 K (827°C or 1520°F)
Boiling Point: Unknown
Density: Unknown
Phase at Room Temperature: Solid
Element Classification: Metal
Period Number: 7    Group Number: none    Group Name: Actinide
Radioactive and Artificially Produced