Atomic Number: 91
Atomic Weight: 231.03588
Melting Point: 1845 K (1572°C or 2862°F)
Boiling Point: Unknown
Density: 15.37 grams per cubic centimeter
Phase at Room Temperature: Solid
Element Classification: Metal
Period Number: 7    Group Number: none    Group Name: Actinide
Radioactive