Atomic Number: 82
Atomic Weight: 207.2
Melting Point: 600.61 K (327.46°C or 621.43°F)
Boiling Point: 2022 K (1749°C or 3180°F)
Density: 11.342 grams per cubic centimeter
Phase at Room Temperature: Solid
Element Classification: Metal
Period Number: 6    Group Number: 14    Group Name: none