Atomic Number: 78
Atomic Weight: 195.084
Melting Point: 2041.55 K (1768.4°C or 3215.1°F)
Boiling Point: 4098 K (3825°C or 6917°F)
Density: 21.46 grams per cubic centimeter
Phase at Room Temperature: Solid
Element Classification: Metal
Period Number: 6    Group Number: 10    Group Name: none